# vtk DataFile Version 3.0
vtk output
ASCII
DATASET POLYDATA
POINTS 13101 float
192.219 145.704 49.644 194.297 145.704 49.567 196.374 145.704 49.8 
185.987 147.853 49.882 188.065 147.853 49.546 190.142 147.853 49.689 
192.219 147.853 49.36 194.297 147.853 49.285 196.374 147.853 49.496 
198.451 147.853 49.513 200.529 147.853 50.038 185.987 150.001 49.26 
188.065 150.001 49.103 190.142 150.001 49.619 192.219 150.001 49.209 
194.297 150.001 49.107 196.374 150.001 49.462 198.451 150.001 49.162 
200.529 150.001 50.086 185.987 152.15 50.041 188.065 152.15 49.889 
190.142 152.15 49.917 192.219 152.15 49.81 194.297 152.15 49.821 
196.374 152.15 49.967 150.673 214.466 49.462 152.75 214.466 49.882 
150.673 216.615 49.179 152.75 216.615 49.864 144.441 233.806 49.779 
146.519 233.806 49.97 140.287 235.955 49.474 142.364 235.955 49.698 
144.441 235.955 49.126 146.519 235.955 49.91 136.132 238.103 49.868 
138.209 238.103 49.532 140.287 238.103 49.032 142.364 238.103 49.702 
144.441 238.103 49.031 136.132 240.252 49.488 138.209 240.252 49.369 
140.287 240.252 49.131 142.364 240.252 50.091 136.132 242.401 49.699 
138.209 242.401 49.556 140.287 242.401 49.965 136.132 244.55 50.051 
190.142 145.68 50.134 188.065 145.704 51.371 198.451 145.868 50.134 
200.529 145.704 51.084 202.606 145.704 52.082 183.91 149.7 50.134 
183.91 147.853 50.979 202.606 147.853 50.799 204.683 147.853 51.817 
179.755 150.001 52.062 181.833 150.001 50.991 198.451 151.954 50.134 
202.606 150.001 50.882 204.683 150.001 51.798 181.833 152.15 51.311 
183.91 152.15 50.495 200.529 152.15 50.907 202.606 152.15 51.72 
183.91 154.299 51.874 185.987 154.299 51.272 188.065 154.299 50.936 
190.142 154.299 50.8 192.219 154.299 50.774 194.297 154.299 50.901 
196.374 154.299 51.232 198.451 154.299 51.619 200.529 154.299 52.101 
150.673 212.317 51.129 152.75 212.317 50.547 154.828 212.317 51.262 
148.596 214.466 51.821 154.735 214.466 50.134 148.596 216.615 51.268 
150.673 218.427 50.134 152.75 218.712 50.134 154.835 216.615 50.134 
156.905 216.615 52.136 148.596 218.764 51.964 154.828 218.764 51.031 
150.673 220.913 51.867 152.75 220.913 51.938 144.441 231.657 51.711 
146.519 231.657 51.537 142.31 233.806 50.134 140.287 233.806 51.238 
148.596 233.806 50.588 136.132 235.955 52.057 148.596 235.955 50.702 
150.673 235.955 52.135 134.055 238.103 51.849 146.519 238.103 50.848 
134.055 241.877 50.134 134.055 244.55 51.173 138.209 244.55 50.214 
190.142 145.272 52.269 192.219 144.127 52.269 194.297 144.621 52.269 
196.374 144.977 52.269 198.451 144.236 52.269 185.987 146.051 52.269 
204.683 145.704 54.065 181.729 147.853 52.269 179.755 147.853 53.479 
206.761 147.853 53.005 177.678 150.001 53.185 206.761 150.001 52.874 
208.838 150.001 54.246 177.678 152.15 53.588 180.027 152.15 52.269 
204.683 152.15 52.563 206.761 152.15 53.563 179.755 154.299 53.962 
181.833 154.299 52.876 188.065 155.957 52.269 190.142 156.203 52.269 
192.219 156.279 52.269 194.297 156.142 52.269 202.606 154.299 52.776 
204.683 154.299 53.511 185.987 156.448 53.44 196.374 156.448 52.805 
198.451 156.448 53.013 200.529 156.448 53.159 202.606 156.448 53.63 
204.683 156.448 54.289 194.297 158.597 54.314 196.374 158.597 54.249 
198.451 158.597 54.236 200.529 158.597 54.141 152.75 211.006 52.269 
154.828 210.169 53.582 156.905 212.317 53.064 156.938 214.466 52.269 
156.905 218.764 52.97 148.596 220.913 53.626 154.828 220.913 52.935 
150.673 223.062 54.022 152.75 223.062 54.186 142.364 232.013 52.269 
148.596 231.657 52.327 150.673 233.511 52.269 150.673 231.657 53.641 
138.209 234.35 52.269 152.75 233.806 53.797 134.055 235.955 54.067 
152.75 235.955 53.665 131.977 238.103 54.308 148.491 238.103 52.269 
150.673 238.103 53.993 132.685 240.252 52.269 142.364 242.057 52.269 
144.602 240.252 52.269 132.607 242.401 52.269 140.287 244.293 52.269 
136.132 246.515 52.269 138.209 246.022 52.269 185.987 145.674 54.403 
188.065 145.512 54.403 190.142 145.261 54.403 192.219 144.773 54.403 
194.297 144.84 54.403 196.374 144.97 54.403 198.451 144.259 54.403 
200.529 145.104 54.403 202.606 145.038 54.403 181.833 146.831 54.403 
183.91 146.256 54.403 177.914 147.853 54.403 208.568 147.853 54.403 
175.835 150.001 54.403 210.915 150.001 56.345 175.601 152.15 54.931 
208.838 152.15 54.801 175.601 154.299 56.347 177.678 154.299 55.163 
181.833 155.648 54.403 206.761 154.456 54.403 208.838 154.299 55.536 
179.755 156.448 56.286 183.748 156.448 54.403 188.065 157.779 54.403 
190.142 158.196 54.403 192.219 158.46 54.403 206.761 156.448 55.212 
208.838 156.448 56.429 185.987 158.597 56.243 202.606 158.597 54.413 
204.683 158.597 55.186 206.761 158.597 56.275 194.297 160.746 56.147 
196.374 160.746 55.78 198.451 160.746 55.61 200.529 160.746 55.492 
202.606 160.746 55.715 152.75 209.651 54.403 156.905 210.646 54.403 
148.611 212.317 54.403 158.982 212.317 55.081 147.683 214.466 54.403 
158.894 214.466 54.403 147.272 216.615 54.403 158.761 216.615 54.403 
147.502 218.764 54.403 156.905 220.184 54.403 158.982 218.764 56.143 
148.596 223.062 55.468 154.828 223.062 55.809 150.673 225.21 55.895 
152.75 225.21 56.139 150.673 227.359 56.391 140.287 231.632 54.403 
142.364 230.694 54.403 144.441 230.262 54.403 146.519 230.224 54.403 
148.596 230.417 54.403 150.673 229.508 55.59 152.75 229.508 56.094 
138.209 232.867 54.403 152.75 231.657 54.945 136.132 234.252 54.403 
154.828 233.806 55.813 131.977 235.955 56.015 154.828 235.955 55.741 
146.519 240.07 54.403 148.596 239.076 54.403 152.75 238.103 55.089 
131.442 240.252 54.403 144.441 241.335 54.403 142.364 242.979 54.403 
133.188 244.55 54.403 136.132 246.617 54.403 138.209 246.399 54.403 
140.736 244.55 54.403 188.065 145.476 56.537 190.142 145.442 56.537 
192.219 145.313 56.537 194.297 145.261 56.537 196.374 145.299 56.537 
198.451 145.223 56.537 200.529 145.329 56.537 202.606 145.35 56.537 
204.683 145.561 56.537 177.678 147.386 56.537 179.755 146.872 56.537 
181.833 146.505 56.537 185.798 145.704 56.537 206.761 145.943 56.537 
208.838 146.933 56.537 175.601 148.563 56.537 210.915 147.853 57.769 
174.208 150.001 56.537 212.993 150.001 58.45 173.524 152.15 56.735 
210.942 152.15 56.537 212.993 152.15 58.304 173.524 154.299 57.643 
210.915 154.299 57.113 175.601 156.448 58.361 177.678 156.448 57.354 
181.833 157.381 56.537 183.91 158.098 56.537 210.915 156.448 57.999 
188.065 159.459 56.537 190.142 160.025 56.537 192.219 160.528 56.537 
208.838 158.597 57.697 204.683 160.746 56.548 206.761 160.746 57.88 
194.297 162.894 58.468 196.374 162.894 57.994 198.451 162.894 57.73 
200.529 162.894 57.702 202.606 162.894 58.029 150.673 209.12 56.537 
150.673 208.02 58.323 154.401 208.02 56.537 156.905 208.665 56.537 
148.596 211.056 56.537 159.035 210.169 56.537 160.44 212.317 56.537 
147.069 214.466 56.537 160.785 214.466 56.537 146.749 216.615 56.537 
160.335 216.615 56.537 146.905 218.764 56.537 147.392 220.913 56.537 
157.425 220.913 56.537 146.519 225.21 58.17 148.596 225.21 56.65 
154.828 225.21 57.46 144.441 229.001 56.537 144.441 227.359 58.399 
146.519 228.467 56.537 148.596 227.693 56.537 152.75 227.359 56.614 
154.828 227.359 57.543 140.287 230.507 56.537 140.287 229.508 58.544 
154.828 231.358 56.537 138.127 231.657 56.537 136.132 232.871 56.537 
136.132 231.657 58.446 156.905 231.657 58.459 131.977 233.806 58.314 
134.055 234.119 56.537 156.905 233.806 57.987 129.9 235.955 57.517 
154.828 237.951 56.537 156.905 235.955 57.91 130.091 238.103 56.537 
148.596 240.035 56.537 150.673 239.631 56.537 156.905 238.103 58.219 
130.57 240.252 56.537 146.519 240.931 56.537 152.75 240.252 57.43 
154.828 240.252 57.879 131.977 242.693 56.537 144.11 242.401 56.537 
142.364 243.749 56.537 146.519 242.401 58.567 133.639 244.55 56.537 
136.132 245.993 56.537 138.209 246.139 56.537 140.287 245.295 56.537 
188.065 145.678 58.672 190.142 145.494 58.672 192.219 145.375 58.672 
194.297 145.352 58.672 196.374 145.448 58.672 198.451 145.386 58.672 
200.529 145.469 58.672 202.606 145.478 58.672 204.683 145.622 58.672 
177.678 147.377 58.672 179.755 146.927 58.672 181.833 146.573 58.672 
183.91 146.269 58.672 185.987 145.955 58.672 206.761 145.867 58.672 
208.838 146.433 58.672 173.524 149.675 58.672 175.601 148.224 58.672 
212.993 147.853 60.151 215.07 150.001 60.573 171.74 152.15 58.672 
215.07 152.15 60.228 171.446 154.299 59.247 212.872 154.299 58.672 
215.07 154.299 60.69 173.524 156.448 59.468 179.755 158.442 58.672 
212.993 156.448 59.764 175.601 158.597 60.641 177.678 158.597 59.713 
181.833 159.119 58.672 183.91 159.869 58.672 185.987 160.595 58.672 
210.915 158.597 59.367 181.833 160.746 60.479 188.065 161.289 58.672 
190.142 161.926 58.672 192.219 162.508 58.672 204.683 162.693 58.672 
208.838 160.746 59.473 188.065 162.894 60.461 206.761 162.894 60.401 
152.75 206.681 58.672 154.828 206.235 58.672 156.905 206.94 58.672 
148.596 209.768 58.672 158.596 208.02 58.672 161.06 210.63 58.672 
147.142 212.317 58.672 146.443 214.466 58.672 162.136 214.466 58.672 
163.137 214.466 60.501 146.226 216.615 58.672 161.625 216.615 58.672 
146.294 218.764 58.672 160.334 218.764 58.672 158.982 220.401 58.672 
146.48 220.913 58.672 146.542 223.062 58.672 156.756 223.062 58.672 
144.441 225.21 60.41 156.905 225.21 59.9 142.364 228.331 58.672 
156.905 227.359 59.833 138.209 230.503 58.672 156.366 229.508 58.672 
131.977 231.657 60.524 134.055 232.527 58.672 129.9 233.806 59.213 
158.982 233.806 60.131 127.823 235.955 59.622 158.982 235.955 59.77 
128.679 238.103 58.672 158.982 238.103 59.683 129.9 240.346 58.672 
148.596 241.689 58.672 150.673 241.56 58.672 152.75 241.857 58.672 
156.905 240.252 58.765 158.982 240.252 59.768 131.977 242.415 58.672 
134.055 244.136 58.672 144.441 243.79 58.672 154.828 242.401 58.938 
156.905 242.401 59.311 158.982 242.401 59.993 136.132 245.301 58.672 
138.209 245.773 58.672 140.287 245.616 58.672 142.364 244.919 58.672 
146.519 244.55 59.699 148.596 244.55 59.854 150.673 244.55 59.803 
152.75 244.55 59.644 154.828 244.55 59.589 156.905 244.55 59.789 
[...]
POINT_DATA 13101
FIELD FieldData 1
vtkOriginalPointIds 1 13101 vtkIdType
1 2 3 4 5 6 7 8 9 
10 11 13 14 15 16 17 18 19 
20 21 22 23 24 25 26 27 28 
29 30 33 34 35 36 37 38 39 
40 41 42 43 44 45 46 47 49 
50 51 52 53 60 62 65 66 69 
70 72 73 74 76 78 81 82 83 
85 94 95 96 97 98 99 100 101 
102 103 104 106 108 109 111 112 117 
118 119 120 122 123 126 127 128 131 
133 134 136 138 141 147 148 150 153 
155 166 169 171 172 173 174 175 181 
185 186 188 190 192 196 197 198 199 
204 205 206 208 211 212 213 214 219 
220 223 228 229 230 231 232 233 234 
235 236 238 241 246 248 256 258 262 
263 264 270 274 275 276 279 282 285 
289 291 292 295 296 298 299 301 304 
308 310 312 313 314 315 316 317 318 
319 320 323 325 328 331 334 338 340 
343 345 347 349 351 352 353 354 358 
359 360 364 365 366 376 377 378 379 
380 381 382 383 384 391 394 398 399 
400 402 403 405 407 408 415 419 420 
421 422 423 424 425 427 429 432 433 
435 439 443 446 449 452 454 455 458 
459 461 466 467 469 470 471 474 475 
476 477 478 479 480 481 482 483 484 
485 486 490 491 493 496 497 500 502 
503 505 507 511 512 514 516 517 520 
525 526 527 531 542 543 544 545 546 
547 548 550 551 552 556 560 562 564 
566 568 570 572 574 578 580 586 588 
591 592 593 594 597 601 602 604 605 
610 612 613 614 616 618 620 623 625 
627 628 629 631 632 636 637 641 644 
645 647 648 649 651 652 655 656 658 
660 661 662 663 664 665 666 667 668 
669 670 671 672 674 678 679 681 683 
686 689 690 694 696 698 700 702 705 
708 709 710 713 714 715 718 719 723 
724 725 726 729 730 741 743 745 747 
750 751 756 758 762 763 764 765 766 
768 769 770 772 777 780 784 786 789 
792 795 797 801 803 809 811 813 815 
816 820 822 823 824 825 828 829 831 
833 834 840 841 842 844 845 846 848 
850 851 852 853 854 855 856 857 858 
859 860 861 862 863 864 865 866 867 
868 869 870 871 872 873 874 875 876 
877 878 879 880 881 882 883 884 886 
894 895 896 898 900 903 905 907 910 
911 917 919 923 926 929 930 931 933 
937 938 946 947 948 949 950 951 952 
953 956 964 965 966 968 970 973 975 
978 981 984 986 987 990 993 994 996 
997 999 1000 1001 1003 1004 1007 1010 1012 
1013 1015 1018 1020 1021 1024 1026 1028 1029 
1031 1033 1041 1044 1048 1049 1050 1052 1054 
1056 1057 1058 1060 1067 1069 1074 1075 1077 
1081 1083 1084 1087 1088 1089 1090 1091 1092 
1093 1094 1095 1096 1097 1098 1102 1103 1104 
1105 1107 1109 1110 1115 1117 1119 1120 1124 
1125 1126 1127 1129 1131 1134 1135 1136 1137 
1142 1144 1145 1147 1149 1150 1152 1154 1159 
1160 1161 1163 1167 1170 1171 1172 1173 1174 
1175 1176 1181 1183 1187 1188 1189 1191 1194 
1199 1200 1201 1203 1204 1206 1207 1209 1211 
1213 1217 1223 1224 1226 1228 1232 1234 1235 
1237 1240 1243 1245 1247 1249 1251 1252 1253 
1254 1256 1258 1260 1264 1265 1267 1270 1271 
1272 1275 1277 1280 1282 1284 1291 1292 1293 
1295 1302 1303 1304 1305 1306 1307 1308 1309 
1310 1311 1312 1313 1314 1315 1316 1317 1319 
1320 1321 1322 1324 1330 1332 1335 1339 1343 
1345 1349 1351 1354 1355 1357 1360 1361 1364 
1365 1368 1369 1370 1371 1374 1376 1381 1382 
1383 1384 1385 1386 1387 1388 1389 1391 1392 
1394 1403 1405 1407 1409 1410 1412 1413 1415 
1416 1420 1421 1426 1430 1431 1432 1433 1435 
1437 1438 1440 1443 1444 1445 1446 1448 1449 
1450 1453 1456 1457 1458 1460 1462 1463 1465 
1468 1470 1472 1473 1475 1476 1479 1481 1483 
1484 1488 1490 1491 1493 1494 1496 1497 1499 
1500 1501 1503 1504 1505 1506 1507 1509 1512 
1514 1515 1516 1519 1520 1523 1524 1527 1530 
1531 1533 1535 1536 1537 1538 1539 1540 1541 
1542 1543 1544 1545 1546 1547 1548 1549 1551 
1552 1553 1554 1555 1557 1559 1561 1562 1564 
1568 1570 1573 1576 1578 1580 1582 1583 1585 
1589 1590 1592 1594 1597 1598 1602 1603 1607 
1608 1611 1614 1615 1616 1617 1618 1621 1627 
1628 1629 1630 1631 1632 1633 1634 1640 1643 
1645 1646 1648 1649 1650 1651 1653 1654 1655 
1656 1657 1658 1659 1660 1661 1662 1663 1664 
1665 1667 1668 1669 1670 1671 1672 1673 1674 
1675 1676 1677 1678 1679 1680 1681 1682 1683 
1684 1685 1686 1687 1688 1690 1691 1692 1693 
1694 1695 1696 1697 1699 1700 1701 1702 1703 
1704 1706 1708 1711 1712 1713 1714 1715 1716 
1718 1721 1722 1723 1724 1725 1726 1727 1731 
1732 1733 1734 1735 1736 1737 1740 1741 1742 
1743 1744 1745 1746 1747 1748 1750 1751 1752 
1753 1754 1756 1758 1759 1760 1761 1762 1763 
1766 1768 1769 1770 1771 1772 1774 1775 1777 
1778 1779 1780 1781 1782 1783 1784 1787 1789 
1790 1791 1793 1795 1797 1798 1799 1800 1801 
1802 1803 1806 1809 1811 1816 1818 1820 1823 
1825 1826 1827 1828 1830 1831 1834 1838 1839 
1841 1843 1845 1847 1849 1851 1854 1855 1859 
1861 1862 1863 1866 1867 1869 1871 1872 1875 
1877 1881 1882 1884 1885 1886 1887 1889 1891 
1892 1893 1894 1895 1896 1897 1898 1899 1900 
1901 1902 1903 1904 1905 1906 1907 1908 1909 
1910 1912 1915 1916 1917 1918 1920 1922 1926 
1928 1932 1936 1938 1942 1943 1944 1946 1948 
1949 1950 1952 1953 1957 1961 1962 1966 1967 
1968 1972 1973 1974 1976 1979 1980 1981 1982 
1984 1985 1986 1989 1990 1994 1998 1999 2002 
2005 2007 2008 2009 2010 2011 2013 2015 2019 
2020 2022 2025 2026 2028 2031 2035 2037 2038 
2040 2042 2044 2047 2049 2050 2055 2056 2059 
2060 2064 2065 2068 2070 2073 2074 2075 2076 
2078 2079 2083 2084 2085 2089 2093 2095 2096 
2097 2103 2106 2107 2108 2113 2115 2116 2118 
2122 2128 2129 2130 2131 2133 2135 2136 2137 
2138 2139 2140 2144 2146 2147 2148 2150 2155 
2157 2158 2159 2162 2165 2168 2171 2173 2175 
2176 2179 2182 2185 2191 2193 2194 2196 2200 
2202 2206 2208 2209 2213 2214 2215 2216 2217 
2219 2220 2221 2222 2224 2225 2226 2228 2229 
2232 2233 2234 2235 2238 2239 2240 2241 2242 
2244 2245 2246 2247 2248 2249 2250 2251 2252 
2253 2254 2255 2256 2257 2258 2259 2260 2261 
2262 2263 2265 2269 2270 2272 2273 2275 2279 
2280 2282 2283 2285 2287 2288 2290 2291 2295 
2296 2298 2301 2302 2304 2306 2309 2310 2312 
2316 2319 2320 2324 2325 2326 2329 2330 2335 
2336 2342 2343 2344 2348 2350 2351 2352 2354 
2355 2358 2359 2363 2364 2365 2366 2367 2372 
2379 2382 2384 2388 2389 2390 2391 2392 2393 
2394 2398 2403 2405 2406 2410 2414 2415 2419 
2420 2422 2424 2425 2426 2430 2431 2435 2436 
2437 2439 2441 2442 2443 2447 2448 2449 2450 
2451 2452 2455 2458 2460 2461 2462 2465 2466 
2467 2468 2472 2476 2477 2481 2484 2486 2487 
2488 2492 2494 2495 2498 2500 2502 2507 2508 
2511 2514 2518 2519 2520 2521 2522 2523 2526 
2529 2533 2535 2537 2539 2540 2541 2544 2546 
2550 2552 2554 2556 2557 2560 2563 2565 2566 
2567 2570 2572 2573 2576 2578 2579 2580 2583 
2584 2585 2588 2589 2592 2593 2596 2598 2601 
2603 2604 2605 2606 2608 2609 2610 2611 2612 
2613 2614 2615 2616 2617 2618 2619 2620 2621 
2622 2623 2624 2625 2627 2632 2633 2634 2636 
2637 2638 2640 2643 2644 2649 2650 2652 2654 
2658 2661 2664 2665 2667 2670 2671 2672 2673 
2674 2678 2679 2682 2683 2684 2685 2686 2687 
2688 2689 2693 2694 2697 2698 2699 2700 2701 
2702 2703 2704 2705 2708 2713 2714 2717 2718 
2719 2720 2722 2727 2730 2731 2733 2735 2737 
2739 2743 2745 2746 2747 2748 2751 2752 2755 
2756 2758 2759 2760 2761 2764 2772 2779 2781 
2782 2783 2784 2785 2786 2787 2788 2789 2790 
2792 2794 2795 2797 2801 2802 2805 2806 2809 
2810 2813 2818 2819 2820 2823 2824 2825 2826 
2829 2830 2831 2832 2833 2836 2837 2838 2840 
2841 2843 2845 2847 2848 2849 2852 2853 2855 
2857 2858 2859 2863 2864 2865 2866 2869 2871 
2873 2875 2876 2877 2878 2879 2882 2883 2887 
2888 2889 2890 2891 2895 2896 2898 2899 2900 
2901 2904 2908 2909 2912 2913 2914 2916 2922 
2924 2926 2927 2930 2932 2935 2937 2939 2942 
2945 2946 2950 2952 2953 2956 2957 2960 2961 
2963 2964 2966 2967 2969 2971 2972 2973 2975 
2976 2977 2978 2979 2981 2982 2983 2985 2986 
2988 2991 2993 2994 2995 2998 3000 3001 3002 
3004 3005 3006 3007 3008 3009 3010 3011 3012 
3013 3014 3015 3016 3017 3018 3019 3020 3022 
3027 3028 3029 3030 3031 3032 3033 3034 3036 
3040 3042 3043 3045 3047 3050 3052 3054 3058 
3060 3062 3066 3070 3073 3076 3079 3080 3081 
3082 3085 3086 3087 3090 3091 3092 3094 3095 
3104 3107 3108 3109 3110 3112 3113 3114 3116 
3122 3123 3124 3125 3126 3127 3134 3135 3137 
3140 3141 3142 3143 3144 3145 3146 3148 3149 
3151 3152 3154 3157 3160 3162 3163 3164 3168 
3171 3172 3173 3174 3175 3177 3180 3181 3182 
3183 3185 3187 3188 3189 3203 3204 3205 3206 
3208 3209 3210 3211 3212 3213 3214 3215 3216 
3219 3221 3222 3224 3227 3228 3231 3233 3236 
3237 3239 3240 3244 3245 3249 3250 3253 3255 
3256 3257 3260 3261 3262 3265 3266 3267 3268 
3271 3272 3274 3275 3277 3282 3283 3289 3291 
3293 3296 3301 3303 3304 3305 3310 3311 3313 
3316 3318 3319 3320 3323 3326 3328 3331 3334 
3337 3338 3341 3343 3344 3347 3349 3350 3353 
3355 3356 3359 3360 3361 3364 3365 3368 3370 
3372 3373 3374 3375 3377 3378 3379 3380 3381 
3383 3384 3385 3386 3387 3388 3389 3391 3395 
3398 3399 3400 3401 3402 3403 3404 3405 3406 
3407 3409 3412 3413 3414 3415 3416 3418 3421 
3423 3424 3426 3430 3431 3433 3436 3439 3440 
3442 3444 3445 3448 3453 3458 3462 3465 3466 
3468 3477 3480 3482 3486 3487 3488 3489 3490 
3491 3492 3494 3499 3500 3505 3506 3507 3508 
3509 3510 3511 3515 3516 3517 3518 3523 3524 
3525 3528 3529 3530 3531 3532 3534 3538 3539 
3542 3547 3548 3549 3550 3551 3553 3554 3555 
3558 3568 3571 3574 3575 3576 3577 3578 3579 
3580 3581 3582 3585 3586 3588 3589 3592 3593 
3594 3598 3601 3602 3604 3606 3609 3611 3612 
3614 3617 3618 3621 3622 3624 3626 3627 3628 
3631 3632 3634 3636 3638 3639 3641 3642 3644 
3648 3650 3652 3656 3658 3659 3661 3663 3665 
3666 3668 3671 3673 3675 3677 3679 3681 3683 
3685 3688 3689 3690 3692 3694 3695 3696 3698 
3699 3701 3702 3703 3706 3707 3710 3711 3712 
3714 3716 3718 3720 3722 3724 3727 3728 3729 
3730 3731 3732 3733 3734 3735 3740 3741 3742 
3743 3744 3745 3746 3747 3748 3749 3750 3751 
3752 3753 3755 3759 3760 3761 3762 3763 3764 
3766 3770 3771 3772 3774 3778 3779 3780 3782 
3785 3786 3788 3792 3793 3795 3797 3799 3801 
3805 3808 3811 3813 3814 3817 3818 3820 3821 
3822 3824 3826 3832 3836 3838 3842 3843 3844 
3845 3846 3853 3854 3856 3859 3860 3861 3862 
3863 3864 3865 3866 3867 3869 3872 3873 3874 
3875 3876 3877 3878 3883 3884 3889 3890 3891 
3892 3893 3894 3898 3900 3901 3903 3911 3912 
3913 3914 3915 3919 3920 3921 3922 3923 3924 
3934 3937 3938 3941 3942 3943 3944 3945 3946 
3947 3948 3949 3950 3951 3952 3955 3956 3957 
3959 3961 3963 3966 3967 3968 3969 3971 3977 
3979 3981 3983 3984 3987 3988 3990 3992 3993 
3995 3997 3998 4000 4001 4003 4004 4006 4007 
4010 4013 4015 4017 4021 4023 4026 4027 4028 
4030 4032 4033 4036 4038 4040 4042 4044 4048 
4050 4053 4055 4057 4060 4062 4064 4066 4068 
4070 4072 4074 4076 4079 4080 4081 4084 4086 
4088 4089 4091 4094 4095 4096 4097 4098 4099 
4100 4101 4102 4103 4104 4105 4106 4107 4108 
4109 4110 4111 4112 4113 4114 4115 4121 4122 
4123 4125 4126 4127 4129 4132 4134 4136 4137 
4139 4143 4144 4146 4149 4151 4154 4155 4157 
4160 4162 4165 4166 4168 4169 4173 4176 4179 
4182 4184 4185 4188 4194 4196 4204 4207 4208 
4209 4213 4214 4215 4216 4217 4218 4223 4224 
4225 4226 4227 4228 4229 4230 4231 4235 4236 
4237 4241 4242 4243 4244 4245 4246 4247 4248 
4249 4251 4254 4255 4256 4261 4262 4263 4268 
4269 4270 4271 4275 4276 4277 4278 4279 4280 
4281 4282 4283 4284 4285 4286 4287 4301 4303 
4304 4305 4306 4309 4310 4311 4312 4313 4314 
4315 4316 4317 4318 4319 4320 4321 4322 4323 
4324 4325 4328 4329 4330 4331 4332 4333 4334 
4335 4336 4337 4340 4342 4343 4344 4347 4348 
4349 4351 4354 4355 4357 4360 4361 4365 4366 
4367 4368 4371 4374 4375 4376 4377 4379 4380 
4382 4383 4386 4387 4389 4392 4395 4399 4401 
4404 4406 4409 4411 4412 4414 4416 4417 4419 
4420 4424 4426 4427 4428 4429 4430 4432 4435 
4436 4438 4439 4441 4445 4446 4447 4448 4450 
4452 4454 4455 4459 4461 4462 4465 4466 4467 
4469 4472 4473 4474 4476 4477 4478 4479 4480 
4481 4482 4483 4484 4485 4486 4487 4488 4489 
4490 4491 4492 4493 4494 4495 4497 4505 4506 
4507 4508 4510 4511 4512 4514 4518 4519 4520 
4521 4522 4524 4525 4528 4530 4531 4533 4537 
4539 4541 4545 4546 4547 4549 4551 4553 4555 
4558 4559 4561 4563 4564 4567 4569 4572 4574 
4575 4577 4579 4580 4582 4584 4588 4590 4594 
4597 4601 4602 4603 4606 4607 4608 4618 4621 
4623 4624 4625 4634 4635 4636 4639 4640 4641 
4642 4643 4644 4645 4646 4652 4656 4657 4658 
4659 4660 4661 4662 4663 4665 4667 4668 4669 
4670 4671 4672 4673 4674 4675 4676 4677 4678 
4679 4689 4690 4691 4692 4694 4695 4696 4697 
4698 4699 4700 4701 4702 4703 4704 4705 4706 
4707 4708 4709 4710 4711 4712 4713 4714 4715 
4716 4719 4720 4721 4722 4723 4724 4725 4726 
4727 4728 4729 4730 4731 4732 4735 4736 4737 
4738 4739 4740 4741 4745 4746 4747 4748 4750 
4752 4754 4755 4756 4757 4760 4762 4764 4765 
4766 4769 4771 4772 4773 4774 4775 4778 4780 
4782 4783 4785 4786 4788 4791 4796 4799 4802 
4805 4809 4810 4811 4813 4815 4818 4819 4821 
4824 4825 4826 4827 4831 4832 4833 4834 4835 
4836 4838 4839 4840 4842 4844 4845 4846 4848 
4849 4852 4853 4855 4856 4858 4859 4861 4862 
4865 4867 4868 4869 4873 4874 4875 4878 4880 
4881 4883 4886 4888 4889 4891 4894 4895 4896 
4897 4898 4899 4900 4901 4902 4903 4904 4905 
4917 4918 4919 4920 4921 4922 4923 4924 4925 
4926 4927 4928 4929 4931 4934 4935 4936 4937 
4938 4939 4940 4942 4945 4946 4947 4949 4952 
4953 4954 4955 4957 4960 4962 4963 4965 4966 
4967 4970 4972 4976 4982 4985 4986 4988 4989 
4990 4994 4999 5000 5003 5004 5006 5010 5011 
5015 5016 5022 5026 5028 5029 5032 5033 5034 
5043 5045 5050 5051 5052 5053 5054 5055 5056 
5058 5065 5070 5071 5072 5077 5078 5079 5080 
5081 5090 5091 5092 5094 5096 5097 5098 5099 
5100 5101 5102 5103 5104 5105 5106 5107 5108 
5109 5110 5112 5114 5115 5116 5117 5118 5119 
5123 5125 5127 5128 5129 5131 5133 5135 5137 
5138 5140 5144 5145 5148 5151 5155 5157 5158 
5162 5163 5164 5165 5167 5168 5170 5173 5175 
5179 5181 5183 5185 5188 5191 5193 5196 5199 
5200 5203 5205 5207 5208 5212 5214 5217 5218 
5222 5223 5225 5226 5229 5231 5236 5237 5240 
5242 5243 5246 5248 5250 5251 5253 5255 5257 
5258 5261 5262 5263 5264 5267 5268 5269 5271 
5273 5274 5275 5276 5277 5278 5279 5280 5281 
5282 5283 5284 5285 5286 5287 5288 5289 5290 
5291 5292 5293 5295 5296 5297 5299 5303 5304 
5305 5306 5307 5308 5309 5311 5312 5315 5318 
5319 5320 5322 5326 5328 5330 5332 5334 5335 
5336 5338 5340 5342 5346 5350 5351 5352 5354 
5357 5361 5363 5366 5368 5369 5372 5373 5375 
5377 5381 5386 5387 5391 5392 5395 5396 5398 
5399 5400 5404 5413 5416 5419 5420 5421 5422 
5423 5424 5425 5426 5428 5429 5430 5432 5434 
5435 5449 5451 5452 5454 5455 5459 5460 5461 
5462 5463 5464 5465 5466 5468 5470 5472 5474 
5477 5478 5479 5480 5481 5482 5483 5484 5486 
5488 5492 5493 5494 5495 5496 5497 5499 5501 
5504 5506 5508 5509 5510 5511 5512 5514 5518 
5519 5521 5523 5524 5525 5526 5527 5528 5534 
5535 5538 5539 5540 5541 5542 5543 5544 5545 
5546 5548 5549 5550 5551 5553 5554 5555 5556 
5558 5559 5561 5563 5564 5567 5568 5569 5571 
5574 5575 5579 5580 5581 5582 5584 5587 5588 
5589 5590 5593 5596 5598 5599 5600 5603 5604 
5605 5607 5610 5611 5614 5615 5619 5620 5621 
5624 5626 5629 5631 5633 5636 5638 5641 5643 
5648 5650 5656 5658 5659 5661 5663 5665 5668 
5669 5670 5671 5673 5675 5676 5677 5678 5679 
5680 5681 5682 5683 5684 5685 5686 5687 5688 
5689 5690 5691 5692 5693 5694 5695 5696 5716 
5717 5718 5719 5720 5722 5723 5724 5725 5727 
5729 5731 5732 5733 5734 5736 5738 5741 5742 
5744 5747 5748 5750 5752 5753 5754 5756 5758 
5760 5762 5766 5768 5770 5772 5774 5777 5782 
5783 5784 5785 5789 5794 5795 5799 5800 5804 
5805 5809 5810 5813 5816 5818 5819 5821 5823 
5824 5834 5837 5842 5843 5844 5847 5849 5852 
5853 5855 5857 5859 5860 5866 5868 5870 5872 
5873 5878 5879 5880 5882 5885 5888 5891 5892 
5893 5895 5897 5899 5902 5903 5904 5906 5909 
5913 5914 5915 5916 5918 5920 5922 5925 5927 
5928 5929 5930 5935 5938 5939 5942 5943 5944 
5945 5946 5948 5949 5950 5953 5954 5955 5956 
5957 5960 5961 5962 5963 5964 5967 5968 5969 
5970 5974 5975 5976 5977 5983 5984 5985 5986 
5991 5992 5993 5994 5998 5999 6000 6001 6003 
6007 6008 6009 6011 6014 6015 6016 6019 6021 
6025 6026 6027 6030 6032 6033 6037 6039 6042 
6043 6044 6045 6049 6050 6051 6053 6055 6056 
6057 6058 6061 6062 6064 6067 6068 6070 6071 
6073 6075 6076 6077 6079 6083 6084 6085 6086 
6087 6088 6089 6090 6091 6092 6093 6094 6095 
6096 6097 6098 6099 6100 6101 6104 6106 6107 
6108 6109 6110 6111 6112 6113 6114 6116 6120 
6121 6122 6123 6124 6129 6130 6131 6132 6134 
6138 6140 6144 6146 6148 6149 6151 6158 6160 
6163 6164 6167 6169 6170 6171 6173 6174 6178 
6179 6183 6184 6189 6190 6191 6196 6198 6202 
6203 6204 6208 6209 6210 6216 6217 6220 6221 
6222 6223 6224 6225 6228 6229 6236 6242 6244 
6245 6247 6248 6249 6251 6252 6255 6257 6259 
6260 6262 6268 6270 6272 6277 6280 6282 6283 
6284 6286 6289 6290 6292 6293 6295 6296 6299 
6300 6305 6306 6310 6312 6314 6317 6318 6320 
6323 6324 6326 6328 6332 6333 6336 6337 6339 
6340 6342 6343 6344 6346 6347 6349 6350 6352 
6354 6357 6361 6362 6367 6368 6369 6372 6373 
6374 6379 6380 6382 6384 6385 6386 6387 6390 
6391 6392 6396 6397 6398 6400 6401 6403 6404 
6405 6408 6410 6412 6413 6415 6416 6418 6422 
6423 6424 6427 6429 6431 6433 6436 6438 6440 
6443 6444 6445 6449 6450 6451 6452 6454 6456 
6457 6458 6459 6460 6461 6462 6463 6464 6465 
6466 6467 6468 6469 6470 6471 6472 6473 6474 
6475 6476 6477 6478 6479 6480 6481 6482 6483 
6485 6490 6491 6492 6493 6494 6495 6497 6501 
6502 6503 6505 6508 6509 6510 6512 6515 6517 
6520 6523 6525 6527 6529 6530 6532 6535 6536 
6538 6541 6542 6543 6548 6550 6554 6555 6559 
6560 6562 6565 6566 6568 6570 6571 6576 6577 
6582 6583 6585 6586 6588 6589 6596 6598 6600 
6602 6603 6604 6605 6606 6607 6608 6611 6612 
6613 6615 6616 6620 6621 6622 6623 6624 6625 
6635 6636 6637 6639 6641 6645 6646 6649 6650 
6651 6653 6655 6657 6659 6663 6665 6667 6668 
6669 6670 6674 6675 6676 6677 6681 6682 6683 
6684 6686 6687 6689 6690 6692 6693 6697 6702 
6705 6708 6709 6710 6712 6714 6716 6718 6720 
6722 6725 6727 6730 6734 6738 6739 6742 6743 
6744 6745 6746 6747 6750 6753 6758 6759 6765 
6766 6769 6770 6772 6775 6776 6777 6782 6783 
6784 6785 6789 6790 6791 6792 6794 6797 6798 
6799 6800 6801 6802 6803 6807 6808 6809 6810 
6811 6812 6813 6815 6820 6821 6822 6823 6824 
6825 6827 6828 6832 6833 6834 6835 6836 6837 
6838 6840 6842 6843 6845 6846 6847 6848 6849 
6850 6851 6852 6853 6856 6858 6860 6864 6865 
6866 6867 6868 6869 6870 6871 6872 6874 6877 
6878 6880 6881 6883 6885 6887 6889 6892 6893 
6894 6895 6897 6898 6899 6900 6901 6902 6903 
6904 6905 6906 6907 6908 6909 6910 6911 6912 
6913 6914 6915 6916 6917 6918 6920 6921 6922 
6923 6925 6931 6933 6935 6937 6938 6939 6941 
6942 6944 6949 6950 6951 6952 6954 6955 6958 
6959 6961 6964 6966 6967 6969 6971 6974 6976 
6979 6980 6982 6985 6988 6992 6994 6995 6996 
6998 7000 7004 7006 7010 7012 7016 7017 7022 
7023 7024 7028 7029 7030 7034 7035 7036 7040 
7041 7042 7046 7047 7048 7050 7052 7053 7054 
7055 7056 7061 7063 7064 7066 7067 7069 7070 
7071 7072 7073 7074 7075 7076 7080 7081 7083 
7085 7086 7088 7099 7100 7103 7105 7107 7108 
7109 7113 7114 7115 7116 7117 7118 7119 7120 
7121 7122 7124 7126 7129 7133 7134 7135 7136 
7138 7141 7142 7147 7148 7149 7151 7154 7156 
7160 7161 7162 7163 7164 7166 7168 7170 7172 
7173 7174 7178 7180 7182 7185 7186 7187 7190 
7191 7192 7195 7196 7198 7201 7202 7203 7205 
7208 7209 7217 7220 7221 7224 7225 7226 7227 
7228 7231 7236 7241 7242 7248 7249 7251 7254 
7256 7258 7261 7263 7266 7269 7272 7274 7277 
7278 7280 7282 7283 7285 7287 7292 7294 7295 
7296 7297 7298 7300 7301 7303 7311 7312 7314 
7315 7317 7320 7321 7322 7323 7326 7328 7329 
7333 7334 7335 7337 7340 7341 7342 7343 7345 
7349 7350 7351 7352 7353 7354 7355 7356 7357 
7360 7361 7362 7363 7364 7365 7366 7368 7371 
7372 7382 7385 7386 7387 7388 7389 7390 7391 
7392 7395 7398 7399 7400 7402 7403 7405 7407 
7410 7411 7412 7414 7415 7418 7420 7422 7425 
7427 7429 7430 7433 7434 7436 7440 7441 7443 
7446 7449 7454 7456 7459 7460 7462 7466 7468 
7469 7472 7474 7475 7478 7484 7486 7489 7490 
7494 7496 7499 7500 7504 7506 7508 7510 7511 
7514 7515 7517 7518 7520 7522 7524 7525 7529 