# vtk DataFile Version 3.0
vtk output
ASCII
DATASET POLYDATA
POINTS 4768 float
270.795 110.064 62.0129 262.822 114.086 55.964 259.054 112.816 54.6833 
254.956 112.479 54.0432 266.744 113.145 58.3906 261.013 111.462 56.6222 
256.815 111.411 56.1776 268.92 111.177 59.9094 264.877 110.686 59.1626 
258.562 110.66 58.5308 266.67 109.804 61.4254 274.35 110.164 65.1533 
268.334 109.291 63.9408 275.943 109.854 67.8083 272.102 108.789 66.6678 
273.629 108.663 69.4487 258.599 115.88 54.123 252.91 114.079 52.2731 
248.729 113.979 51.7953 250.703 112.585 53.7061 252.528 111.612 55.9057 
270.829 113.303 61.6256 254.248 110.939 58.3128 261.641 110.296 61.2908 
255.862 110.564 60.923 263.853 110.042 64.0463 265.425 109.79 66.7404 
279.054 111.215 71.8135 269.316 108.937 69.2273 274.938 109.156 72.6559 
270.931 108.563 71.8392 252.132 118.06 52.3412 246.247 116.815 50.8735 
243.984 115.479 52.4149 264.129 116.193 57.8606 248.203 112.23 55.4577 
267.476 115.698 60.3004 249.854 111.444 58.2501 275.344 113.743 67.1901 
251.457 111.101 60.882 259.498 110.438 63.9081 261.005 110.37 66.7293 
262.566 110.146 69.4428 280.225 112.098 75.2884 266.454 109.304 71.9384 
274.156 109.6 75.6228 255.916 118.403 54.3099 261.654 118.146 57.6323 
258.963 118.357 55.9421 269.189 116.95 63.2449 244.92 113.171 56.2899 
272.927 116.134 66.3541 246.881 112.123 61.1735 278.546 114.993 70.902 
256.801 110.689 66.0092 253.16 110.995 63.6939 248.508 111.717 63.7623 
282.203 114.242 74.3002 258.197 110.579 69.3301 277.527 111.999 77.6781 
269.997 108.67 75.7296 263.581 109.698 74.6668 267.35 109.193 77.3922 
249.516 119.784 52.8988 243.575 118.531 51.6732 253.398 120.036 54.5244 
241.307 117.098 53.3208 264.831 119.206 61.6049 240.681 115.325 57.4298 
270.469 118.213 65.9489 243.594 113.452 59.0877 276.116 117.287 70.1981 
243.96 112.659 63.9989 280.485 116.754 73.2189 254.107 111.025 68.0233 
250.084 111.451 66.447 283.384 116.874 76.3104 259.792 110.381 71.8828 
285.06 116.326 78.8027 281.4 113.666 78.1905 255.335 110.947 72.0422 
273.283 110.546 78.5705 259.07 110.538 74.8333 256.647 121.633 57.755 
240.82 120.254 52.8229 260.449 121.294 60.2009 238.588 118.83 54.3041 
267.998 120.205 65.6662 271.758 119.55 68.5514 242.015 113.685 61.826 
277.43 118.804 72.5517 246.076 111.961 66.4251 251.402 111.272 70.1636 
288.34 118.982 81.034 248.803 111.535 71.8307 286.585 116.203 81.5857 
282.654 114.741 81.1562 278.66 113.663 80.6776 275.55 112.594 80.6381 
270.591 110.896 80.5666 263.233 110.239 77.7459 248.315 122.961 55.429 
244.415 122.579 53.983 254.129 123.278 57.9536 257.955 123.119 60.1495 
235.814 120.722 55.3973 263.639 122.457 64.0341 237.238 117.059 58.3442 
269.274 121.437 68.4145 274.945 120.695 72.4081 238.718 114.841 62.338 
278.744 120.333 74.888 241.217 113.133 66.1103 236.825 114.959 64.963 
284.486 120.107 78.1658 244.032 112.106 69.0541 240.57 112.748 69.1803 
252.527 111.4 74.4454 242.271 112.128 71.6238 291.541 120.089 84.8654 
258.273 111.202 77.6853 287.491 117.842 85.5777 283.902 115.776 84.1795 
279.927 114.831 83.5149 271.925 112.565 82.709 264.04 111.159 80.7083 
253.791 111.779 77.938 275.388 114.521 84.7331 267.944 111.577 82.105 
239.835 123.193 54.6242 249.644 124.596 57.6168 245.597 124.643 56.4479 
259.258 124.55 62.6214 255.383 125.011 60.3865 233.168 120.473 57.6841 
266.792 123.345 68.2462 235.2 117.356 60.7531 272.443 122.445 72.46 
276.249 122.138 74.863 280.648 122.142 77.1155 289.702 122.024 81.9372 
310.909 126.72 88.7993 306.855 126.26 88.0744 293.255 122.979 84.3901 
237.764 112.954 71.7811 312.653 125.98 91.1588 308.827 124.873 89.9901 
249.825 111.669 76.5536 245.988 111.769 74.4497 239.527 112.156 74.1007 
310.464 124.435 92.5569 281.225 116.232 86.0278 269.236 112.932 84.6803 
265.282 112.148 83.7932 261.389 111.815 82.2792 257.378 111.79 81.0176 
258.833 111.866 83.9377 250.964 126.156 59.9083 256.742 126.205 62.8041 
232.614 123.819 57.3172 262.423 125.528 66.7089 230.351 120.711 60.3053 
268.06 124.519 71.0748 232.544 118.481 61.6369 273.757 123.969 74.8014 
233.886 116.237 65.5973 287.29 124.445 81.0579 282.341 124.251 78.7986 
312.459 130.083 88.6472 308.816 128.456 87.1215 304.563 128.558 86.7821 
294.616 126.876 84.6046 291.415 124.736 82.7522 235.849 114.18 69.7532 
314.324 128.996 90.7699 235.017 112.992 74.2645 314.104 126.069 94.0874 
289.3 120.58 87.7247 284.598 118.757 87.9667 249.032 111.831 79.7977 
245.171 111.735 77.9545 241.148 111.766 76.7003 236.888 111.89 76.3763 
311.915 124.526 95.4868 278.552 116.722 87.8286 274.544 115.532 87.5045 
254.81 111.876 82.6992 242.617 111.802 79.5925 270.536 114.343 87.1797 
266.537 113.223 86.7577 262.564 112.301 86.0616 250.285 112.195 83.3451 
256.08 111.924 86.4355 246.419 127.03 60.1901 242.51 126.578 58.8411 
238.571 125.908 57.7955 252.252 127.49 62.5156 259.911 127.212 66.8533 
255.693 128.336 65.5353 263.687 126.674 69.5769 227.502 121.037 62.9883 
271.262 125.775 74.7778 230.022 118.534 64.1535 284.841 126.6 80.5487 
279.001 126.092 78.2895 274.928 126.475 76.9574 231.532 116.516 67.8708 
310.176 132.353 87.3372 306.383 131.151 86.1027 290.34 128.821 82.8668 
299.932 129.737 87.1817 233.228 114.821 71.2129 315.574 131.432 92.6456 
304.091 126.674 90.3264 301.7 128.927 89.4942 294.235 124.923 87.8176 
230.597 115.344 72.8065 305.892 125.538 92.9072 232.346 112.816 76.6021 
315.393 126.62 97.3324 308.276 124.743 95.2898 281.938 119.336 89.646 
246.341 112.192 81.7792 238.536 111.378 78.9575 234.349 111.339 78.4562 
313.156 125.209 98.8236 275.866 117.114 89.7673 271.848 115.853 89.5411 
267.833 114.617 89.2809 263.803 113.27 89.1761 259.804 112.146 88.7606 
251.645 112.546 86.4532 255.243 112.524 89.51 239.871 127.323 60.2874 
235.929 126.627 59.2781 247.71 128.381 62.7718 243.798 127.976 61.397 
229.445 123.961 59.8346 261.176 128.367 69.7079 266.868 127.769 73.5018 
307.808 134.866 86.1937 303.86 134.104 85.2616 302.02 131.621 85.9396 
299.675 134.016 84.7914 286.282 129.056 81.5961 283.916 130.881 81.0031 
280.438 128.527 79.3666 227.654 118.616 66.706 313.729 132.843 90.1702 
297.854 131.427 85.4732 293.867 130.777 84.6184 228.86 117.003 69.6765 
226.236 117.534 71.2352 296.038 127.94 88.2334 316.961 131.703 95.6992 
291.524 125.129 90.0121 227.849 115.388 75.2945 287.407 123.136 90.8028 
279.265 119.829 91.4425 241.749 112.711 82.5515 229.65 112.709 78.9867 
316.439 127.858 101.05 310.133 125.632 98.8349 273.191 117.587 91.5923 
247.566 113.043 85.056 237.777 111.795 81.8473 231.491 111.694 81.1585 
269.164 116.259 91.46 265.121 114.809 91.4959 261.077 113.359 91.5342 
250.775 113.24 89.5918 250.964 130.02 65.9425 241.174 128.758 62.755 
237.221 127.979 61.8598 233.261 127.153 61.0309 256.742 130.062 68.8482 
227.109 124.336 61.9782 262.462 129.672 72.3542 305.362 139.373 83.7556 
268.206 129.47 75.5995 224.721 122.951 64.0968 301.488 136.628 84.1256 
297.329 136.468 83.6066 277.954 130.416 79.2265 274.031 129.857 78.0264 
311.373 135.68 88.7156 295.545 133.771 84.2143 291.55 133.144 83.3747 
287.716 132.061 82.2223 224.796 119.856 67.321 315.052 134.426 92.4323 
298.929 130.808 90.5796 318.21 134.141 97.576 302.132 129.641 92.7734 
293.363 127.964 90.7143 304.131 128.772 95.0655 288.838 125.523 91.9485 
319.794 132.079 101.691 306.474 127.889 97.556 284.738 123.651 92.5709 
312.089 126.728 102.133 280.372 122.533 93.7127 276.585 120.266 93.3199 
244.948 113.943 86.2885 239.12 113.529 83.8999 235.142 112.562 83.266 
226.9 112.758 81.4793 321.532 129.579 105.508 317.863 128.026 104.033 
270.504 117.971 93.5407 230.561 112.557 84.4133 325.203 129.35 108.423 
319.553 127.438 106.497 315.585 126.734 105.605 267.01 116.672 93.6403 
262.401 114.954 93.7783 246.201 114.256 89.8795 334.842 130.133 112.646 
328.935 128.949 111.22 323.233 127.184 109.394 317.329 125.993 107.964 
258.385 113.709 93.5311 254.332 113.336 92.7295 249.963 113.77 92.6179 
332.773 128.249 113.811 326.859 127.083 112.397 321.031 125.678 110.819 
314.987 124.881 109.658 330.547 126.807 115.281 318.753 124.383 112.39 
246.431 130.982 66.1008 242.5 130.369 64.9759 238.541 129.549 64.1381 
234.575 128.672 63.3788 252.264 131.434 68.437 230.574 127.538 62.9779 
307.079 142.261 83.2781 303.043 141.746 82.5149 259.944 131.314 72.5563 
308.858 141.417 85.567 299.053 139.331 83.1128 265.706 131.235 75.6303 
293.249 135.738 83.2111 289.284 134.873 82.4364 285.322 134.024 81.6383 
281.375 133.293 80.6776 277.048 134.201 80.0038 273.222 133.093 78.8345 
270.448 131.62 77.5042 222.619 122.475 66.2727 312.37 139.868 90.2391 
222.523 119.956 69.8958 316.383 136.079 94.595 223.524 118.06 73.1732 
299.907 132.243 94.4319 290.301 128.143 92.7676 224.531 116.588 75.8362 
286.167 126.024 93.7346 307.729 128.976 100.505 224.803 114.5 79.8056 
323.118 132.835 105.283 240.426 114.986 86.3343 336.635 134.578 110.575 
332.695 133.793 109.627 328.739 133.057 108.712 273.903 120.683 95.2207 
235.975 115.14 86.7997 224.019 113.175 84.223 340.549 133.66 113.017 
330.851 131.268 110.353 312.23 127.104 105.545 263.744 116.686 95.8304 
342.168 133.271 115.618 338.692 131.17 113.767 259.705 115.27 95.821 
255.712 114.199 95.3317 340.224 131.032 116.54 336.623 129.22 114.987 
310.474 125.725 109.828 251.311 114.152 95.7475 338.009 129.558 117.987 
323.598 125.526 113.683 312.618 123.847 111.408 333.901 127.477 118.813 
328.064 126.098 117.253 320.195 124.498 115.337 316.399 123.307 114.11 
310.095 123.249 113.455 313.815 122.883 116.276 308.626 147.4 81.6828 
304.899 144.239 81.7671 300.584 144.519 81.5501 253.553 132.77 71.0411 
247.748 132.523 68.4195 239.881 131.258 66.2247 235.915 130.379 65.4678 
227.927 128.215 64.5204 296.565 142.187 82.2031 294.845 139.354 82.649 
224.845 127.188 64.4354 290.851 138.269 82.1793 286.86 137.208 81.6773 
282.874 136.185 81.1202 263.191 132.904 75.795 221.766 125.334 65.5558 
219.245 124.752 67.5855 315.082 139.44 92.9174 218.944 122.058 71.0622 
318.291 137.552 97.3171 295.854 132.56 93.0709 220.834 118.917 74.4318 
[...]
POINT_DATA 4768
FIELD FieldData 1
vtkOriginalPointIds 1 4768 vtkIdType
1 3 5 7 9 12 14 19 22 
25 31 34 37 39 41 44 48 53 
55 62 70 72 78 83 87 94 102 
103 110 112 114 119 124 130 133 135 
138 149 151 160 166 175 185 186 195 
196 205 211 212 221 224 227 240 241 
245 246 250 261 266 276 281 285 288 
290 293 297 304 305 315 318 319 322 
336 337 340 343 346 347 353 356 362 
370 375 388 395 396 400 406 412 420 
425 434 443 447 455 458 460 462 474 
478 481 487 489 493 502 504 505 513 
518 521 525 528 532 534 535 549 552 
556 562 563 568 575 578 580 584 586 
592 593 599 607 611 614 621 624 630 
631 635 644 652 658 666 674 676 678 
684 685 687 694 697 700 701 707 727 
729 731 734 744 747 757 764 765 774 
775 778 781 792 797 800 806 810 813 
814 815 819 821 845 846 852 855 856 
858 861 863 865 870 872 874 881 888 
890 892 899 905 907 909 911 917 924 
927 931 940 942 945 947 950 955 957 
961 965 972 986 991 994 996 997 1000 
1003 1017 1028 1030 1033 1038 1042 1047 1049 
1051 1055 1057 1059 1074 1076 1081 1086 1089 
1091 1096 1099 1113 1117 1122 1139 1143 1144 
1146 1149 1151 1154 1159 1161 1169 1173 1178 
1186 1190 1197 1202 1205 1212 1226 1227 1232 
1234 1237 1243 1245 1252 1256 1261 1263 1273 
1279 1282 1287 1289 1291 1293 1301 1302 1307 
1308 1313 1322 1325 1329 1331 1339 1345 1349 
1353 1357 1365 1377 1384 1385 1387 1395 1398 
1403 1408 1410 1420 1424 1426 1428 1431 1433 
1438 1439 1441 1450 1457 1459 1462 1464 1466 
1470 1477 1478 1481 1484 1487 1492 1495 1497 
1500 1503 1506 1509 1511 1515 1519 1521 1523 
1525 1529 1542 1545 1548 1550 1556 1566 1572 
1585 1589 1593 1597 1602 1606 1607 1610 1614 
1620 1623 1626 1642 1645 1646 1655 1661 1668 
1670 1680 1689 1691 1693 1704 1712 1720 1721 
1729 1735 1742 1747 1749 1760 1762 1769 1772 
1778 1782 1783 1792 1800 1802 1805 1809 1811 
1814 1815 1816 1822 1825 1826 1829 1833 1835 
1839 1850 1851 1858 1866 1870 1874 1885 1889 
1894 1900 1904 1910 1914 1916 1925 1929 1932 
1936 1938 1944 1947 1952 1958 1962 1966 1973 
1975 1977 1979 1984 1990 1995 1997 2008 2011 
2019 2030 2033 2038 2050 2059 2067 2069 2076 
2081 2088 2092 2099 2101 2104 2107 2109 2118 
2122 2126 2128 2130 2135 2140 2142 2146 2150 
2153 2171 2179 2181 2184 2193 2195 2199 2208 
2211 2215 2221 2225 2233 2234 2246 2257 2259 
2261 2262 2264 2268 2271 2284 2296 2302 2305 
2311 2314 2315 2318 2325 2327 2329 2331 2348 
2350 2357 2361 2368 2373 2377 2384 2388 2391 
2393 2403 2407 2409 2417 2420 2426 2433 2436 
2440 2443 2453 2454 2460 2464 2472 2476 2478 
2480 2484 2488 2492 2507 2512 2518 2519 2530 
2540 2542 2545 2548 2556 2574 2579 2595 2598 
2602 2608 2610 2614 2616 2620 2622 2631 2636 
2641 2647 2654 2658 2660 2664 2667 2668 2673 
2680 2684 2688 2691 2693 2700 2708 2716 2718 
2729 2743 2747 2753 2755 2759 2763 2767 2771 
2776 2779 2785 2788 2790 2795 2797 2799 2801 
2810 2812 2818 2822 2827 2839 2841 2843 2847 
2849 2855 2859 2860 2869 2872 2877 2879 2881 
2882 2898 2901 2903 2908 2909 2917 2919 2930 
2934 2938 2939 2940 2945 2951 2955 2958 2959 
2965 2967 2969 2975 2983 2987 2989 2996 2999 
3002 3004 3011 3017 3021 3024 3028 3032 3037 
3042 3045 3050 3055 3059 3069 3086 3087 3093 
3099 3101 3106 3110 3114 3116 3126 3135 3138 
3140 3142 3154 3161 3162 3171 3186 3188 3190 
3195 3210 3215 3216 3219 3222 3224 3227 3229 
3232 3234 3236 3238 3240 3242 3247 3260 3264 
3268 3272 3280 3290 3293 3299 3303 3307 3309 
3313 3315 3317 3322 3329 3331 3338 3343 3345 
3350 3353 3357 3363 3366 3368 3372 3377 3379 
3382 3390 3392 3394 3396 3398 3400 3406 3409 
3411 3413 3415 3417 3420 3423 3424 3430 3434 
3438 3439 3441 3444 3453 3459 3462 3466 3469 
3471 3473 3474 3480 3486 3490 3492 3497 3498 
3500 3511 3514 3516 3517 3531 3534 3543 3546 
3552 3553 3559 3563 3566 3568 3570 3576 3577 
3582 3603 3604 3606 3613 3615 3617 3620 3622 
3631 3634 3636 3645 3647 3650 3652 3655 3657 
3659 3661 3664 3667 3672 3674 3676 3679 3684 
3688 3689 3691 3693 3695 3698 3706 3709 3712 
3714 3716 3719 3723 3726 3729 3732 3734 3736 
3741 3745 3746 3748 3751 3753 3755 3761 3764 
3766 3768 3771 3773 3780 3785 3786 3789 3791 
3794 3796 3804 3807 3811 3819 3823 3826 3829 
3831 3845 3848 3849 3855 3859 3863 3882 3898 
3906 3908 3911 3919 3927 3930 3934 3943 3944 
3946 3948 3956 3968 3970 3978 3981 3986 4003 
4008 4010 4013 4019 4031 4038 4039 4046 4049 
4051 4052 4054 4064 4065 4068 4077 4083 4086 
4088 4092 4098 4100 4110 4112 4122 4124 4130 
4133 4135 4138 4145 4149 4153 4155 4162 4165 
4178 4181 4186 4190 4195 4205 4207 4210 4221 
4222 4227 4229 4231 4244 4247 4249 4251 4252 
4256 4261 4266 4273 4276 4278 4287 4295 4297 
4299 4301 4304 4308 4313 4317 4319 4326 4331 
4333 4335 4343 4354 4359 4361 4375 4381 4382 
4390 4404 4408 4413 4420 4424 4429 4432 4437 
4442 4448 4452 4454 4456 4461 4470 4473 4476 
4478 4485 4487 4495 4499 4501 4503 4505 4515 
4516 4521 4522 4529 4533 4538 4541 4551 4553 
4561 4563 4566 4573 4575 4580 4585 4586 4594 
4596 4607 4610 4620 4622 4625 4636 4643 4649 
4656 4659 4667 4671 4677 4694 4695 4697 4703 
4708 4710 4725 4727 4733 4734 4744 4747 4757 
4760 4765 4771 4774 4782 4785 4793 4799 4804 
4808 4817 4820 4822 4824 4826 4830 4831 4837 
4838 4844 4851 4856 4863 4876 4883 4886 4896 
4902 4905 4907 4909 4919 4921 4923 4927 4934 
4936 4938 4947 4950 4953 4958 4966 4967 4975 
4978 4980 4984 4986 4994 4996 5006 5013 5015 
5016 5021 5027 5030 5035 5039 5043 5045 5050 
5054 5058 5064 5071 5074 5077 5081 5086 5092 
5094 5098 5101 5102 5106 5120 5121 5127 5128 
5132 5135 5139 5142 5151 5152 5157 5159 5173 
5181 5184 5186 5188 5194 5206 5208 5210 5212 
5220 5223 5225 5235 5238 5239 5242 5244 5257 
5260 5266 5270 5271 5280 5285 5294 5296 5298 
5300 5301 5305 5323 5325 5331 5344 5355 5359 
5366 5370 5371 5383 5385 5389 5400 5402 5403 
5406 5416 5418 5420 5422 5423 5429 5432 5437 
5438 5445 5446 5455 5459 5461 5465 5472 5477 
5479 5482 5484 5486 5494 5497 5502 5505 5506 
5514 5523 5529 5530 5535 5537 5538 5548 5556 
5560 5570 5579 5581 5588 5594 5596 5598 5602 
5604 5606 5610 5623 5625 5627 5630 5633 5635 
5644 5647 5651 5655 5663 5668 5673 5676 5679 
5686 5688 5695 5703 5706 5707 5710 5722 5726 
5736 5742 5743 5763 5765 5771 5773 5776 5778 
5786 5789 5794 5797 5799 5801 5803 5806 5808 
5811 5814 5819 5827 5831 5833 5839 5847 5853 
5859 5861 5870 5872 5878 5881 5884 5890 5892 
5896 5897 5900 5921 5925 5927 5931 5938 5944 
5946 5949 5951 5958 5961 5967 5969 5976 5980 
5982 5985 5992 5994 5996 6004 6006 6008 6010 
6014 6018 6023 6025 6032 6038 6039 6046 6049 
6053 6062 6071 6074 6076 6085 6088 6093 6100 
6103 6106 6113 6116 6118 6121 6123 6133 6141 
6147 6154 6158 6165 6167 6169 6175 6182 6185 
6187 6191 6195 6197 6199 6201 6203 6210 6219 
6222 6225 6229 6231 6239 6243 6245 6251 6255 
6262 6266 6274 6277 6282 6288 6300 6304 6307 
6311 6313 6315 6322 6328 6330 6339 6341 6344 
6352 6353 6359 6362 6365 6374 6378 6380 6382 
6385 6386 6391 6396 6406 6407 6412 6416 6420 
6424 6427 6432 6433 6439 6440 6447 6450 6456 
6464 6467 6469 6487 6495 6501 6505 6512 6517 
6522 6529 6535 6539 6542 6545 6551 6552 6564 
6569 6573 6578 6581 6583 6592 6601 6607 6609 
6616 6622 6630 6636 6639 6642 6644 6647 6659 
6663 6670 6687 6691 6703 6705 6712 6717 6724 
6727 6728 6729 6733 6743 6747 6749 6752 6754 
6756 6758 6760 6762 6764 6775 6777 6779 6780 
6791 6801 6803 6804 6810 6815 6826 6828 6831 
6832 6838 6842 6844 6854 6856 6859 6864 6870 
6872 6875 6878 6880 6882 6887 6889 6897 6902 
6908 6915 6918 6922 6926 6930 6937 6941 6943 
6946 6954 6961 6963 6965 6980 6983 6986 6989 
6993 6998 7000 7003 7018 7023 7026 7027 7029 
7036 7047 7049 7052 7054 7065 7068 7070 7076 
7084 7095 7101 7102 7108 7122 7125 7127 7136 
7137 7141 7152 7154 7158 7167 7175 7176 7183 
7184 7190 7192 7197 7202 7207 7211 7213 7215 
7218 7222 7228 7234 7236 7243 7250 7259 7263 
7273 7284 7286 7289 7296 7307 7313 7316 7320 
7322 7325 7332 7334 7336 7338 7349 7351 7355 
7358 7362 7364 7366 7372 7374 7383 7385 7387 
7389 7392 7394 7401 7406 7409 7410 7420 7422 
7424 7429 7432 7435 7442 7449 7454 7455 7458 
7462 7467 7476 7479 7484 7493 7496 7499 7501 
7503 7509 7510 7515 7519 7523 7527 7534 7537 
7543 7554 7556 7558 7561 7563 7564 7568 7578 
7580 7589 7598 7599 7614 7616 7618 7627 7630 
7634 7644 7646 7662 7668 7674 7684 7688 7690 
7706 7711 7723 7727 7729 7731 7734 7738 7740 
7745 7749 7764 7766 7768 7774 7775 7786 7788 
7790 7793 7808 7815 7817 7829 7832 7834 7842 
7844 7847 7861 7863 7867 7869 7877 7880 7882 
7885 7894 7897 7899 7907 7911 7913 7915 7923 
7925 7930 7934 7942 7944 7946 7954 7957 7958 
7960 7962 7968 7980 7983 7986 7991 7997 8000 
8002 8003 8013 8016 8018 8022 8026 8038 8048 
8051 8057 8061 8062 8064 8066 8070 8072 8078 
8080 8082 8084 8087 8089 8091 8093 8099 8116 
8118 8119 8123 8133 8135 8138 8142 8144 8146 
8154 8160 8162 8164 8166 8172 8176 8186 8188 
8196 8202 8205 8207 8210 8212 8215 8221 8225 
8226 8237 8240 8248 8251 8256 8269 8273 8283 
8285 8293 8296 8302 8307 8309 8312 8318 8329 
8332 8341 8343 8348 8355 8359 8361 8365 8369 
8373 8377 8383 8385 8393 8395 8400 8403 8407 
8410 8415 8421 8423 8425 8433 8437 8441 8442 
8444 8446 8448 8450 8452 8454 8457 8459 8461 
8463 8465 8467 8474 8476 8479 8485 8488 8491 
8492 8498 8502 8505 8512 8520 8522 8525 8527 
8536 8538 8541 8543 8545 8557 8559 8561 8568 
8575 8577 8579 8588 8591 8594 8597 8600 8609 
8611 8624 8626 8628 8630 8638 8640 8642 8644 
8647 8653 8661 8663 8667 8683 8689 8693 8695 
8699 8703 8706 8715 8719 8723 8731 8742 8749 
8751 8752 8756 8759 8760 8765 8775 8778 8781 
8782 8785 8794 8798 8800 8807 8811 8813 8816 
8818 8820 8821 8823 8836 8840 8844 8847 8849 
8851 8854 8856 8858 8860 8867 8869 8875 8882 
8888 8902 8907 8909 8911 8913 8921 8924 8931 
8944 8948 8951 8953 8962 8967 8974 8988 8990 
8992 8994 8995 9003 9010 9015 9019 9021 9023 
9033 9035 9037 9040 9044 9047 9059 9062 9064 
9068 9071 9075 9080 9088 9098 9101 9103 9111 
9115 9117 9125 9127 9129 9133 9151 9164 9174 
9180 9183 9187 9188 9190 9197 9203 9205 9207 
9210 9214 9220 9222 9228 9230 9232 9235 9241 
9251 9253 9256 9260 9262 9264 9267 9271 9279 
9281 9283 9285 9287 9290 9292 9294 9296 9299 
9302 9304 9307 9309 9317 9319 9321 9323 9326 
9329 9333 9338 9341 9342 9344 9347 9349 9350 
9365 9367 9376 9379 9384 9390 9394 9395 9397 
9400 9414 9415 9418 9420 9422 9448 9451 9463 
9468 9473 9475 9477 9479 9487 9492 9497 9499 
9502 9523 9531 9533 9536 9540 9545 9549 9553 
9559 9563 9565 9566 9568 9575 9582 9589 9591 
9593 9597 9600 9605 9616 9621 9631 9633 9635 
9648 9652 9661 9666 9669 9673 9677 9681 9688 
9692 9700 9702 9720 9724 9726 9730 9735 9737 
9739 9742 9745 9747 9752 9758 9760 9762 9764 
9768 9769 9772 9775 9777 9779 9784 9792 9796 
9799 9806 9810 9814 9820 9830 9834 9847 9849 
9853 9856 9858 9862 9864 9874 9877 9880 9890 
9892 9901 9904 9906 9908 9911 9916 9924 9930 
9933 9935 9937 9940 9945 9949 9966 9968 9981 
9983 9984 9988 9997 10000 10002 10004 10006 10013 
10014 10015 10031 10038 10044 10053 10057 10067 10072 
10075 10085 10088 10093 10100 10104 10108 10111 10115 
10118 10122 10125 10135 10140 10152 10154 10156 10160 
10167 10169 10172 10175 10177 10183 10186 10193 10195 
10197 10210 10211 10214 10216 10218 10223 10232 10233 
10236 10240 10251 10257 10264 10273 10277 10280 10288 
10290 10292 10297 10302 10305 10308 10315 10320 10322 
10323 10340 10348 10352 10356 10358 10360 10367 10372 
10375 10385 10387 10388 10392 10395 10403 10404 10406 
10411 10414 10421 10423 10429 10431 10433 10437 10442 
10447 10452 10457 10459 10466 10468 10470 10476 10484 
10490 10493 10502 10506 10508 10511 10515 10517 10519 
10532 10543 10545 10549 10551 10553 10563 10567 10569 
10575 10577 10587 10599 10605 10608 10610 10614 10618 
10632 10635 10638 10648 10651 10657 10659 10666 10669 
10672 10681 10683 10684 10689 10692 10695 10706 10711 
10718 10720 10722 10724 10736 10738 10742 10755 10758 
10763 10765 10770 10777 10785 10787 10793 10809 10817 
10833 10844 10850 10855 10863 10868 10878 10880 10887 
10893 10896 10898 10904 10905 10908 10910 10921 10923 
10930 10936 10938 10943 10945 10947 10955 10958 10972 
10979 10994 10995 10999 11002 11006 11011 11018 11023 
11027 11037 11039 11043 11045 11052 11061 11065 11079 
11085 11095 11098 11100 11104 11112 11121 11123 11126 
11132 11134 11136 11138 11143 11145 11147 11151 11154 
11156 11158 11165 11167 11180 11182 11185 11189 11196 
11198 11201 11205 11212 11217 11222 11224 11227 11229 
11231 11239 11245 11254 11259 11261 11263 11270 11281 
11283 11289 11291 11295 11297 11299 11305 11307 11310 
11315 11317 11320 11322 11332 11336 11338 11347 11353 
11357 11365 11368 11372 11387 11389 11394 11396 11398 
11402 11406 11410 11413 11415 11417 11419 11423 11425 
11431 11436 11450 11452 11454 11455 11460 11461 11466 
11471 11472 11485 11491 11494 11498 11507 11509 11520 
11523 11527 11532 11539 11549 11553 11557 11558 11560 
11573 11579 11582 11583 11589 11592 11595 11598 11601 
11604 11613 11618 11622 11630 11636 11644 11647 11652 
11656 11657 11666 11674 11676 11680 11684 11690 11698 
11702 11714 11718 11720 11723 11733 11739 11741 11747 
11749 11752 11760 11774 11784 11793 11797 11805 11807 
11810 11813 11821 11825 11832 11834 11837 11842 11848 
11850 11851 11855 11858 11861 11863 11874 11876 11880 
11885 11895 11900 11905 11906 11909 11913 11923 11924 
11930 11935 11938 11947 11948 11956 11965 11968 11970 
11972 11974 11978 11980 11984 11987 11998 12004 12006 
12011 12016 12019 12026 12029 12031 12036 12041 12049 
12064 12070 12078 12080 12084 12087 12091 12106 12107 
12111 12119 12121 12127 12134 12136 12138 12143 12145 
12147 12149 12156 12161 12163 12165 12168 12171 12175 
12180 12184 12191 12204 12206 12208 12215 12216 12221 
12227 12228 12235 12237 12238 12240 12252 12254 12262 
12266 12268 12272 12283 12285 12288 12298 12307 12310 
12313 12322 12325 12330 12332 12338 12340 12349 12356 
12370 12372 12374 12380 12383 12385 12391 12396 12402 
12412 12418 12420 12424 12427 12429 12431 12434 12443 
12445 12449 12453 12462 12465 12473 12479 12486 12487 
12494 12497 12506 12508 12511 12515 12517 12534 12541 
12546 12548 12554 12556 12565 12569 12571 12577 12579 
12584 12588 12592 12597 12603 12611 12616 12621 12624 
12630 12635 12644 12646 12657 12659 12662 12666 12669 
12676 12679 12682 12689 12691 12695 12700 12704 12708 
12709 12711 12717 12720 12723 12727 12730 12733 12735 
12737 12746 12751 12753 12757 12770 12772 12774 12779 
12786 12792 12794 12796 12799 12803 12805 12808 12810 
12819 12822 12834 12837 12845 12851 12863 12868 12877 
12885 12887 12889 12891 12893 12895 12896 12902 12909 
12911 12925 12929 12932 12936 12941 12943 12946 12954 
12960 12967 12970 12977 12979 12981 12990 12994 12998 
13006 13008 13018 13023 13027 13029 13031 13033 13041 
13045 13051 13053 13056 13059 13067 13068 13072 13075 
13084 13086 13088 13091 13095 13098 13106 13113 13119 
13121 13129 13133 13137 13143 13145 13151 13163 13166 
13169 13172 13175 13177 13179 13182 13185 13191 13195 
13197 13201 13209 13212 13214 13217 13220 13222 13224 
13237 13247 13253 13261 13263 13274 13276 13285 13289 
13293 13294 13304 13310 13313 13315 13325 13327 13331 
13334 13338 13340 13342 13351 13354 13359 13361 13367 
13373 13375 13386 13387 13401 13409 13417 13426 13436 
13445 13449 13451 13456 13458 13463 13472 13474 13478 
13484 13488 13491 13497 13505 13508 13510 13518 13530 
13540 13547 13548 13550 13552 13554 13556 13558 13560 
13562 13564 13566 13568 13590 13592 13594 13596 13609 
13610 13618 13627 13629 13634 13638 13642 13645 13649 
13651 13653 13658 13663 13665 13667 13676 13681 13682 
13691 13693 13703 13711 13713 13716 13719 13725 13728 
13733 13734 13737 13739 13741 13753 13759 13761 13767 
13771 13775 13779 13782 13784 13786 13788 13793 13797 
13803 13809 13814 13817 13822 13825 13827 13832 13837 
13839 13842 13851 13858 13861 13863 13867 13872 13879 
13883 13891 13900 13903 13905 13907 13911 13916 13919 
13921 13928 13931 13937 13940 13943 13948 13954 13966 
13968 13971 13977 13980 13985 13991 13996 14008 14013 
14016 14019 14021 14030 14031 14036 14043 14061 14065 
14069 14074 14079 14083 14087 14090 14091 14099 14101 
14108 14109 14112 14124 14129 14131 14138 14148 14152 
14165 14170 14173 14175 14178 14186 14193 14195 14204 
14212 14217 14219 14230 14233 14234 14239 14241 14244 
14246 14248 14250 14252 14254 14262 14264 14268 14286 
14297 14299 14304 14307 14309 14311 14320 14321 14324 
14327 14329 14336 14338 14340 14343 14348 14350 14352 
14361 14368 14373 14375 14378 14383 14390 14392 14397 
14399 14401 14406 14417 14427 14431 14439 14444 14448 
14454 14461 14465 14469 14472 14474 14476 14479 14481 
14484 14489 14491 14493 14499 14507 14510 14522 14530 
14535 14536 14543 14545 14548 14558 14561 14571 14574 
14578 14588 14596 14599 14601 14603 14605 14607 14609 
14611 14613 14615 14618 14635 14637 14639 14642 14656 
14665 14671 14680 14684 14687 14691 14692 14702 14711 
14716 14718 14722 14730 14740 14743 14746 14749 14754 
14757 14763 14770 14779 14782 14788 14793 14798 14806 
14815 14817 14821 14828 14833 14834 14839 14847 14857 
14861 14870 14872 14874 14876 14877 14882 14902 14904 
14906 14912 14917 14918 14921 14929 14935 14938 14939 
14944 14946 14951 14954 14958 14960 14962 14964 14966 
14968 14970 14972 14977 14978 14987 14990 14992 14994 
14997 15010 15015 15021 15023 15025 15034 15037 15039 
15041 15048 15050 15052 15055 15065 15071 15072 15075 
15078 15080 15086 15091 15096 15101 15106 15112 15114 
15116 15123 15126 15139 15140 15142 15145 15150 15151 
15156 15161 15169 15173 15177 15182 15184 15186 15190 
15192 15194 15201 15209 15221 15224 15231 15235 15238 
15240 15242 15244 15251 15256 15259 15270 15287 15294 
15296 15300 15302 15304 15306 15308 15310 15312 15314 
15317 15319 15348 15349 15355 15359 15364 15366 15381 
15387 15395 15396 15400 15401 15412 15414 15416 15418 
15424 15430 15434 15439 15441 15445 15448 15454 15456 
15464 15466 15471 15473 15483 15488 15489 15494 15501 
15503 15506 15513 15515 15517 15521 15524 15530 15540 
15549 15557 15558 15560 15562 15571 15573 15575 15583 
15585 15592 15610 15614 15618 15620 15624 15626 15632 
15636 15639 15642 15647 15653 15655 15657 15659 15661 
15663 15665 15667 15669 15671 15673 15676 15678 15694 
15696 15702 15706 15713 15719 15723 15724 15727 15729 
15735 15738 15740 15755 15760 15761 15765 15768 15771 
15775 15783 15788 15793 15797 15803 15805 15808 15815 
15817 15819 15833 15844 15846 15850 15852 15856 15865 
15870 15872 15874 15876 15878 15879 15881 15886 15888 
15890 15897 15907 15920 15923 15928 15937 15938 15940 
15942 15944 15946 15948 15953 15958 15960 15970 15971 
15975 15978 15983 15989 15991 15993 15995 15997 15999 
16004 16006 16009 16024 16026 16028 16035 16037 16042 
16045 16049 16052 16054 16060 16072 16073 16080 16083 
16085 16087 16089 16100 16105 16109 16111 16118 16126 
16134 16140 16148 16150 16156 16157 16159 16162 16166 
16179 16183 16186 16189 16191 16195 16204 16212 16221 
16228 16241 16243 16245 16247 16251 16253 16259 16261 
16267 16270 16283 16292 16293 16298 16301 16303 16312 
16314 16316 16318 16320 16322 16324 16326 16328 16330 
16334 16336 16338 16369 16373 16375 16377 16382 16387 
16389 16395 16405 16408 16411 16415 16422 16429 16432 
16435 16438 16441 16444 16450 16452 16456 16459 16467 
16473 16475 16478 16480 16483 16485 16502 16504 16509 
16512 16514 16516 16518 16523 16525 16527 16532 16534 
16544 16546 16563 16565 16570 16572 16577 16579 16581 
16586 16588 16590 16592 16601 16607 16614 16617 16620 
16622 16627 16629 16631 16633 16635 16637 16639 16648 
16651 16653 16655 16658 16674 16676 16678 16681 16685 
16687 16689 16712 16714 16716 16725 16728 16730 16732 
16734 16735 16739 16745 16752 16758 16762 16765 16774 
16775 16779 16780 16782 16795 16800 16802 16810 16812 
16818 16825 16826 16832 16833 16842 16849 16858 16867 
16874 16881 16885 16887 16889 16891 16906 16917 16931 
16933 16936 16939 16944 16949 16950 16957 16965 16967 
16969 16971 16973 16975 16977 16979 17001 17003 17012 
17016 17018 17020 17034 17036 17042 17055 17058 17060 
17064 17067 17071 17077 17082 17088 17090 17092 17098 